<?xml version="1.0"?>
<VTKFile type="UnstructuredGrid"  version="0.1"  >
<UnstructuredGrid>
<Piece  NumberOfPoints="6171" NumberOfCells="30000">
<Points>
<DataArray  type="Float64"  NumberOfComponents="3"  format="ascii">0 0 0  0.06 0 0  0.12 0 0  0.18 0 0  0.24 0 0  0.3 0 0  0.36 0 0  0.42 0 0  0.48 0 0  0.54 0 0  0.6 0 0  0.66 0 0  0.72 0 0  0.78 0 0  0.84 0 0  0.9 0 0  0.96 0 0  1.02 0 0  1.08 0 0  1.14 0 0  1.2 0 0  1.26 0 0  1.32 0 0  1.38 0 0  1.44 0 0  1.5 0 0  1.56 0 0  1.62 0 0  1.68 0 0  1.74 0 0  1.8 0 0  1.86 0 0  1.92 0 0  1.98 0 0  2.04 0 0  2.1 0 0  2.16 0 0  2.22 0 0  2.28 0 0  2.34 0 0  2.4 0 0  2.46 0 0  2.52 0 0  2.58 0 0  2.64 0 0  2.7 0 0  2.76 0 0  2.82 0 0  2.88 0 0  2.94 0 0  3 0 0  0 0.1 0  0.06 0.1 0  0.12 0.1 0  0.18 0.1 0  0.24 0.1 0  0.3 0.1 0  0.36 0.1 0  0.42 0.1 0  0.48 0.1 0  0.54 0.1 0  0.6 0.1 0  0.66 0.1 0  0.72 0.1 0  0.78 0.1 0  0.84 0.1 0  0.9 0.1 0  0.96 0.1 0  1.02 0.1 0  1.08 0.1 0  1.14 0.1 0  1.2 0.1 0  1.26 0.1 0  1.32 0.1 0  1.38 0.1 0  1.44 0.1 0  1.5 0.1 0  1.56 0.1 0  1.62 0.1 0  1.68 0.1 0  1.74 0.1 0  1.8 0.1 0  1.86 0.1 0  1.92 0.1 0  1.98 0.1 0  2.04 0.1 0  2.1 0.1 0  2.16 0.1 0  2.22 0.1 0  2.28 0.1 0  2.34 0.1 0  2.4 0.1 0  2.46 0.1 0  2.52 0.1 0  2.58 0.1 0  2.64 0.1 0  2.7 0.1 0  2.76 0.1 0  2.82 0.1 0  2.88 0.1 0  2.94 0.1 0  3 0.1 0  0 0.2 0  0.06 0.2 0  0.12 0.2 0  0.18 0.2 0  0.24 0.2 0  0.3 0.2 0  0.36 0.2 0  0.42 0.2 0  0.48 0.2 0  0.54 0.2 0  0.6 0.2 0  0.66 0.2 0  0.72 0.2 0  0.78 0.2 0  0.84 0.2 0  0.9 0.2 0  0.96 0.2 0  1.02 0.2 0  1.08 0.2 0  1.14 0.2 0  1.2 0.2 0  1.26 0.2 0  1.32 0.2 0  1.38 0.2 0  1.44 0.2 0  1.5 0.2 0  1.56 0.2 0  1.62 0.2 0  1.68 0.2 0  1.74 0.2 0  1.8 0.2 0  1.86 0.2 0  1.92 0.2 0  1.98 0.2 0  2.04 0.2 0  2.1 0.2 0  2.16 0.2 0  2.22 0.2 0  2.28 0.2 0  2.34 0.2 0  2.4 0.2 0  2.46 0.2 0  2.52 0.2 0  2.58 0.2 0  2.64 0.2 0  2.7 0.2 0  2.76 0.2 0  2.82 0.2 0  2.88 0.2 0  2.94 0.2 0  3 0.2 0  0 0.3 0  0.06 0.3 0  0.12 0.3 0  0.18 0.3 0  0.24 0.3 0  0.3 0.3 0  0.36 0.3 0  0.42 0.3 0  0.48 0.3 0  0.54 0.3 0  0.6 0.3 0  0.66 0.3 0  0.72 0.3 0  0.78 0.3 0  0.84 0.3 0  0.9 0.3 0  0.96 0.3 0  1.02 0.3 0  1.08 0.3 0  1.14 0.3 0  1.2 0.3 0  1.26 0.3 0  1.32 0.3 0  1.38 0.3 0  1.44 0.3 0  1.5 0.3 0  1.56 0.3 0  1.62 0.3 0  1.68 0.3 0  1.74 0.3 0  1.8 0.3 0  1.86 0.3 0  1.92 0.3 0  1.98 0.3 0  2.04 0.3 0  2.1 0.3 0  2.16 0.3 0  2.22 0.3 0  2.28 0.3 0  2.34 0.3 0  2.4 0.3 0  2.46 0.3 0  2.52 0.3 0  2.58 0.3 0  2.64 0.3 0  2.7 0.3 0  2.76 0.3 0  2.82 0.3 0  2.88 0.3 0  2.94 0.3 0  3 0.3 0  0 0.4 0  0.06 0.4 0  0.12 0.4 0  0.18 0.4 0  0.24 0.4 0  0.3 0.4 0  0.36 0.4 0  0.42 0.4 0  0.48 0.4 0  0.54 0.4 0  0.6 0.4 0  0.66 0.4 0  0.72 0.4 0  0.78 0.4 0  0.84 0.4 0  0.9 0.4 0  0.96 0.4 0  1.02 0.4 0  1.08 0.4 0  1.14 0.4 0  1.2 0.4 0  1.26 0.4 0  1.32 0.4 0  1.38 0.4 0  1.44 0.4 0  1.5 0.4 0  1.56 0.4 0  1.62 0.4 0  1.68 0.4 0  1.74 0.4 0  1.8 0.4 0  1.86 0.4 0  1.92 0.4 0  1.98 0.4 0  2.04 0.4 0  2.1 0.4 0  2.16 0.4 0  2.22 0.4 0  2.28 0.4 0  2.34 0.4 0  2.4 0.4 0  2.46 0.4 0  2.52 0.4 0  2.58 0.4 0  2.64 0.4 0  2.7 0.4 0  2.76 0.4 0  2.82 0.4 0  2.88 0.4 0  2.94 0.4 0  3 0.4 0  0 0.5 0  0.06 0.5 0  0.12 0.5 0  0.18 0.5 0  0.24 0.5 0  0.3 0.5 0  0.36 0.5 0  0.42 0.5 0  0.48 0.5 0  0.54 0.5 0  0.6 0.5 0  0.66 0.5 0  0.72 0.5 0  0.78 0.5 0  0.84 0.5 0  0.9 0.5 0  0.96 0.5 0  1.02 0.5 0  1.08 0.5 0  1.14 0.5 0  1.2 0.5 0  1.26 0.5 0  1.32 0.5 0  1.38 0.5 0  1.44 0.5 0  1.5 0.5 0  1.56 0.5 0  1.62 0.5 0  1.68 0.5 0  1.74 0.5 0  1.8 0.5 0  1.86 0.5 0  1.92 0.5 0  1.98 0.5 0  2.04 0.5 0  2.1 0.5 0  2.16 0.5 0  2.22 0.5 0  2.28 0.5 0  2.34 0.5 0  2.4 0.5 0  2.46 0.5 0  2.52 0.5 0  2.58 0.5 0  2.64 0.5 0  2.7 0.5 0  2.76 0.5 0  2.82 0.5 0  2.88 0.5 0  2.94 0.5 0  3 0.5 0  0 0.6 0  0.06 0.6 0  0.12 0.6 0  0.18 0.6 0  0.24 0.6 0  0.3 0.6 0  0.36 0.6 0  0.42 0.6 0  0.48 0.6 0  0.54 0.6 0  0.6 0.6 0  0.66 0.6 0  0.72 0.6 0  0.78 0.6 0  0.84 0.6 0  0.9 0.6 0  0.96 0.6 0  1.02 0.6 0  1.08 0.6 0  1.14 0.6 0  1.2 0.6 0  1.26 0.6 0  1.32 0.6 0  1.38 0.6 0  1.44 0.6 0  1.5 0.6 0  1.56 0.6 0  1.62 0.6 0  1.68 0.6 0  1.74 0.6 0  1.8 0.6 0  1.86 0.6 0  1.92 0.6 0  1.98 0.6 0  2.04 0.6 0  2.1 0.6 0  2.16 0.6 0  2.22 0.6 0  2.28 0.6 0  2.34 0.6 0  2.4 0.6 0  2.46 0.6 0  2.52 0.6 0  2.58 0.6 0  2.64 0.6 0  2.7 0.6 0  2.76 0.6 0  2.82 0.6 0  2.88 0.6 0  2.94 0.6 0  3 0.6 0  0 0.7 0  0.06 0.7 0  0.12 0.7 0  0.18 0.7 0  0.24 0.7 0  0.3 0.7 0  0.36 0.7 0  0.42 0.7 0  0.48 0.7 0  0.54 0.7 0  0.6 0.7 0  0.66 0.7 0  0.72 0.7 0  0.78 0.7 0  0.84 0.7 0  0.9 0.7 0  0.96 0.7 0  1.02 0.7 0  1.08 0.7 0  1.14 0.7 0  1.2 0.7 0  1.26 0.7 0  1.32 0.7 0  1.38 0.7 0  1.44 0.7 0  1.5 0.7 0  1.56 0.7 0  1.62 0.7 0  1.68 0.7 0  1.74 0.7 0  1.8 0.7 0  1.86 0.7 0  1.92 0.7 0  1.98 0.7 0  2.04 0.7 0  2.1 0.7 0  2.16 0.7 0  2.22 0.7 0  2.28 0.7 0  2.34 0.7 0  2.4 0.7 0  2.46 0.7 0  2.52 0.7 0  2.58 0.7 0  2.64 0.7 0  2.7 0.7 0  2.76 0.7 0  2.82 0.7 0  2.88 0.7 0  2.94 0.7 0  3 0.7 0  0 0.8 0  0.06 0.8 0  0.12 0.8 0  0.18 0.8 0  0.24 0.8 0  0.3 0.8 0  0.36 0.8 0  0.42 0.8 0  0.48 0.8 0  0.54 0.8 0  0.6 0.8 0  0.66 0.8 0  0.72 0.8 0  0.78 0.8 0  0.84 0.8 0  0.9 0.8 0  0.96 0.8 0  1.02 0.8 0  1.08 0.8 0  1.14 0.8 0  1.2 0.8 0  1.26 0.8 0  1.32 0.8 0  1.38 0.8 0  1.44 0.8 0  1.5 0.8 0  1.56 0.8 0  1.62 0.8 0  1.68 0.8 0  1.74 0.8 0  1.8 0.8 0  1.86 0.8 0  1.92 0.8 0  1.98 0.8 0  2.04 0.8 0  2.1 0.8 0  2.16 0.8 0  2.22 0.8 0  2.28 0.8 0  2.34 0.8 0  2.4 0.8 0  2.46 0.8 0  2.52 0.8 0  2.58 0.8 0  2.64 0.8 0  2.7 0.8 0  2.76 0.8 0  2.82 0.8 0  2.88 0.8 0  2.94 0.8 0  3 0.8 0  0 0.9 0  0.06 0.9 0  0.12 0.9 0  0.18 0.9 0  0.24 0.9 0  0.3 0.9 0  0.36 0.9 0  0.42 0.9 0  0.48 0.9 0  0.54 0.9 0  0.6 0.9 0  0.66 0.9 0  0.72 0.9 0  0.78 0.9 0  0.84 0.9 0  0.9 0.9 0  0.96 0.9 0  1.02 0.9 0  1.08 0.9 0  1.14 0.9 0  1.2 0.9 0  1.26 0.9 0  1.32 0.9 0  1.38 0.9 0  1.44 0.9 0  1.5 0.9 0  1.56 0.9 0  1.62 0.9 0  1.68 0.9 0  1.74 0.9 0  1.8 0.9 0  1.86 0.9 0  1.92 0.9 0  1.98 0.9 0  2.04 0.9 0  2.1 0.9 0  2.16 0.9 0  2.22 0.9 0  2.28 0.9 0  2.34 0.9 0  2.4 0.9 0  2.46 0.9 0  2.52 0.9 0  2.58 0.9 0  2.64 0.9 0  2.7 0.9 0  2.76 0.9 0  2.82 0.9 0  2.88 0.9 0  2.94 0.9 0  3 0.9 0  0 1 0  0.06 1 0  0.12 1 0  0.18 1 0  0.24 1 0  0.3 1 0  0.36 1 0  0.42 1 0  0.48 1 0  0.54 1 0  0.6 1 0  0.66 1 0  0.72 1 0  0.78 1 0  0.84 1 0  0.9 1 0  0.96 1 0  1.02 1 0  1.08 1 0  1.14 1 0  1.2 1 0  1.26 1 0  1.32 1 0  1.38 1 0  1.44 1 0  1.5 1 0  1.56 1 0  1.62 1 0  1.68 1 0  1.74 1 0  1.8 1 0  1.86 1 0  1.92 1 0  1.98 1 0  2.04 1 0  2.1 1 0  2.16 1 0  2.22 1 0  2.28 1 0  2.34 1 0  2.4 1 0  2.46 1 0  2.52 1 0  2.58 1 0  2.64 1 0  2.7 1 0  2.76 1 0  2.82 1 0  2.88 1 0  2.94 1 0  3 1 0  0 0 0.1  0.06 0 0.1  0.12 0 0.1  0.18 0 0.1  0.24 0 0.1  0.3 0 0.1  0.36 0 0.1  0.42 0 0.1  0.48 0 0.1  0.54 0 0.1  0.6 0 0.1  0.66 0 0.1  0.72 0 0.1  0.78 0 0.1  0.84 0 0.1  0.9 0 0.1  0.96 0 0.1  1.02 0 0.1  1.08 0 0.1  1.14 0 0.1  1.2 0 0.1  1.26 0 0.1  1.32 0 0.1  1.38 0 0.1  1.44 0 0.1  1.5 0 0.1  1.56 0 0.1  1.62 0 0.1  1.68 0 0.1  1.74 0 0.1  1.8 0 0.1  1.86 0 0.1  1.92 0 0.1  1.98 0 0.1  2.04 0 0.1  2.1 0 0.1  2.16 0 0.1  2.22 0 0.1  2.28 0 0.1  2.34 0 0.1  2.4 0 0.1  2.46 0 0.1  2.52 0 0.1  2.58 0 0.1  2.64 0 0.1  2.7 0 0.1  2.76 0 0.1  2.82 0 0.1  2.88 0 0.1  2.94 0 0.1  3 0 0.1  0 0.1 0.1  0.06 0.1 0.1  0.12 0.1 0.1  0.18 0.1 0.1  0.24 0.1 0.1  0.3 0.1 0.1  0.36 0.1 0.1  0.42 0.1 0.1  0.48 0.1 0.1  0.54 0.1 0.1  0.6 0.1 0.1  0.66 0.1 0.1  0.72 0.1 0.1  0.78 0.1 0.1  0.84 0.1 0.1  0.9 0.1 0.1  0.96 0.1 0.1  1.02 0.1 0.1  1.08 0.1 0.1  1.14 0.1 0.1  1.2 0.1 0.1  1.26 0.1 0.1  1.32 0.1 0.1  1.38 0.1 0.1  1.44 0.1 0.1  1.5 0.1 0.1  1.56 0.1 0.1  1.62 0.1 0.1  1.68 0.1 0.1  1.74 0.1 0.1  1.8 0.1 0.1  1.86 0.1 0.1  1.92 0.1 0.1  1.98 0.1 0.1  2.04 0.1 0.1  2.1 0.1 0.1  2.16 0.1 0.1  2.22 0.1 0.1  2.28 0.1 0.1  2.34 0.1 0.1  2.4 0.1 0.1  2.46 0.1 0.1  2.52 0.1 0.1  2.58 0.1 0.1  2.64 0.1 0.1  2.7 0.1 0.1  2.76 0.1 0.1  2.82 0.1 0.1  2.88 0.1 0.1  2.94 0.1 0.1  3 0.1 0.1  0 0.2 0.1  0.06 0.2 0.1  0.12 0.2 0.1  0.18 0.2 0.1  0.24 0.2 0.1  0.3 0.2 0.1  0.36 0.2 0.1  0.42 0.2 0.1  0.48 0.2 0.1  0.54 0.2 0.1  0.6 0.2 0.1  0.66 0.2 0.1  0.72 0.2 0.1  0.78 0.2 0.1  0.84 0.2 0.1  0.9 0.2 0.1  0.96 0.2 0.1  1.02 0.2 0.1  1.08 0.2 0.1  1.14 0.2 0.1  1.2 0.2 0.1  1.26 0.2 0.1  1.32 0.2 0.1  1.38 0.2 0.1  1.44 0.2 0.1  1.5 0.2 0.1  1.56 0.2 0.1  1.62 0.2 0.1  1.68 0.2 0.1  1.74 0.2 0.1  1.8 0.2 0.1  1.86 0.2 0.1  1.92 0.2 0.1  1.98 0.2 0.1  2.04 0.2 0.1  2.1 0.2 0.1  2.16 0.2 0.1  2.22 0.2 0.1  2.28 0.2 0.1  2.34 0.2 0.1  2.4 0.2 0.1  2.46 0.2 0.1  2.52 0.2 0.1  2.58 0.2 0.1  2.64 0.2 0.1  2.7 0.2 0.1  2.76 0.2 0.1  2.82 0.2 0.1  2.88 0.2 0.1  2.94 0.2 0.1  3 0.2 0.1  0 0.3 0.1  0.06 0.3 0.1  0.12 0.3 0.1  0.18 0.3 0.1  0.24 0.3 0.1  0.3 0.3 0.1  0.36 0.3 0.1  0.42 0.3 0.1  0.48 0.3 0.1  0.54 0.3 0.1  0.6 0.3 0.1  0.66 0.3 0.1  0.72 0.3 0.1  0.78 0.3 0.1  0.84 0.3 0.1  0.9 0.3 0.1  0.96 0.3 0.1  1.02 0.3 0.1  1.08 0.3 0.1  1.14 0.3 0.1  1.2 0.3 0.1  1.26 0.3 0.1  1.32 0.3 0.1  1.38 0.3 0.1  1.44 0.3 0.1  1.5 0.3 0.1  1.56 0.3 0.1  1.62 0.3 0.1  1.68 0.3 0.1  1.74 0.3 0.1  1.8 0.3 0.1  1.86 0.3 0.1  1.92 0.3 0.1  1.98 0.3 0.1  2.04 0.3 0.1  2.1 0.3 0.1  2.16 0.3 0.1  2.22 0.3 0.1  2.28 0.3 0.1  2.34 0.3 0.1  2.4 0.3 0.1  2.46 0.3 0.1  2.52 0.3 0.1  2.58 0.3 0.1  2.64 0.3 0.1  2.7 0.3 0.1  2.76 0.3 0.1  2.82 0.3 0.1  2.88 0.3 0.1  2.94 0.3 0.1  3 0.3 0.1  0 0.4 0.1  0.06 0.4 0.1  0.12 0.4 0.1  0.18 0.4 0.1  0.24 0.4 0.1  0.3 0.4 0.1  0.36 0.4 0.1  0.42 0.4 0.1  0.48 0.4 0.1  0.54 0.4 0.1  0.6 0.4 0.1  0.66 0.4 0.1  0.72 0.4 0.1  0.78 0.4 0.1  0.84 0.4 0.1  0.9 0.4 0.1  0.96 0.4 0.1  1.02 0.4 0.1  1.08 0.4 0.1  1.14 0.4 0.1  1.2 0.4 0.1  1.26 0.4 0.1  1.32 0.4 0.1  1.38 0.4 0.1  1.44 0.4 0.1  1.5 0.4 0.1  1.56 0.4 0.1  1.62 0.4 0.1  1.68 0.4 0.1  1.74 0.4 0.1  1.8 0.4 0.1  1.86 0.4 0.1  1.92 0.4 0.1  1.98 0.4 0.1  2.04 0.4 0.1  2.1 0.4 0.1  2.16 0.4 0.1  2.22 0.4 0.1  2.28 0.4 0.1  2.34 0.4 0.1  2.4 0.4 0.1  2.46 0.4 0.1  2.52 0.4 0.1  2.58 0.4 0.1  2.64 0.4 0.1  2.7 0.4 0.1  2.76 0.4 0.1  2.82 0.4 0.1  2.88 0.4 0.1  2.94 0.4 0.1  3 0.4 0.1  0 0.5 0.1  0.06 0.5 0.1
[...]
<PointData  Vectors="u"> 
<DataArray  type="Float64"  Name="u"  NumberOfComponents="3" format="ascii">0.0000000000000000e+00 0.0000000000000000e+00 0.0000000000000000e+00  4.1639083393057563e-04 6.3584825625211819e-03 -5.7820262683580970e-03  5.8754140684183845e-04 1.3742066646455709e-02 -1.2602017737138971e-02  6.1971712267716117e-04 2.1685558864267696e-02 -1.9831624480260171e-02  5.8516669456060600e-04 2.9943864486746723e-02 -2.7179062519292294e-02  5.2617449225383992e-04 3.8388855736186174e-02 -3.4498912291742047e-02  4.6512059459136786e-04 4.6956977124618771e-02 -4.1719727262797594e-02  4.1258479202506372e-04 5.5619280917907431e-02 -4.8808120035896199e-02  3.7261608804835191e-04 6.4364619211202415e-02 -5.5749888748117864e-02  3.4586349423140251e-04 7.3190428101995414e-02 -6.2540075222450225e-02  3.3134239596152918e-04 8.2097802438053896e-02 -6.9177818093246024e-02  3.2739063074848360e-04 9.1088964334145983e-02 -7.5663779667289544e-02  3.3216191633728744e-04 1.0016604638723817e-01 -8.1998937584368117e-02  3.4386276139257340e-04 1.0933057830373742e-01 -8.8184083194396343e-02  3.6085182935206145e-04 1.1858333347272457e-01 -9.4219671841544742e-02  3.8166964962087647e-04 1.2792434562567409e-01 -1.0010583759428149e-01  4.0503755844831409e-04 1.3735299350565450e-01 -1.0584247676993727e-01  4.2984879360352196e-04 1.4686810109385162e-01 -1.1142935424226090e-01  4.5516637214705239e-04 1.5646802846487939e-01 -1.1686621265469092e-01  4.8023863794435513e-04 1.6615074317058245e-01 -1.2215287776542194e-01  5.0454241841033857e-04 1.7591386971015940e-01 -1.2728935906315655e-01  5.2786460341378504e-04 1.8575471836935825e-01 -1.3227594670292545e-01  5.5043511733666463e-04 1.9567029638684688e-01 -1.3711330537443453e-01  5.7312739408439640e-04 2.0565730511843788e-01 -1.4180256368584440e-01  5.9774638131756825e-04 2.1571212724320774e-01 -1.4634539423331364e-01  6.2742860014014014e-04 2.2583080845099751e-01 -1.5074407458876463e-01  6.6718361082340652e-04 2.3600903868943582e-01 -1.5500151257930772e-01  7.2461099219081409e-04 2.4624213908658588e-01 -1.5912120984427797e-01  8.1083103962883312e-04 2.5652506224064031e-01 -1.6310712493011351e-01  9.4166995775340687e-04 2.6685241582883462e-01 -1.6696338009794245e-01  1.1391401416729096e-03 2.7721852260298363e-01 -1.7069373332544038e-01  1.4332515015053459e-03 2.8761753398733331e-01 -1.7430070719981450e-01  1.8641783182249171e-03 2.9804361981704974e-01 -1.7778422782135325e-01  2.4847844454258311e-03 3.0849126325524295e-01 -1.8113957761867366e-01  3.3634727613088677e-03 3.1895569728817658e-01 -1.8435440428999750e-01  4.5872647962178223e-03 3.2943352651637281e-01 -1.8740445245372370e-01  6.2649208471509329e-03 3.3992358336762329e-01 -1.9024759450207446e-01  8.5297593572931808e-03 3.5042806809324739e-01 -1.9281563415920858e-01  1.1541594658179170e-02 3.6095401184750481e-01 -1.9500324603197877e-01  1.5486834627437430e-02 3.7151507427928082e-01 -1.9665331074688000e-01  2.0575190084899220e-02 3.8213363049614496e-01 -1.9753783753745982e-01  2.7030536781913275e-02 3.9284299988634513e-01 -1.9733369454873392e-01  3.5072076851587704e-02 4.0368948937935417e-01 -1.9559261236149780e-01  4.4879819258041069e-02 4.1473359752557998e-01 -1.9170562970875993e-01  5.6535142869783131e-02 4.2604909335203195e-01 -1.8486379166213557e-01  6.9922293689893417e-02 4.3771737378264530e-01 -1.7402038314440441e-01  8.4570086635241695e-02 4.4981168695031715e-01 -1.5786647088188080e-01  9.9409355349895825e-02 4.6235981792271796e-01 -1.3483910938674096e-01  1.1245001221555287e-01 4.7526242107270850e-01 -1.0315603051229215e-01  1.2058440251300734e-01 4.8813013749437145e-01 -6.0525115384635043e-02  1.2084426972227606e-01 5.0000000000000000e-01 -1.5308084989341915e-17  0.0000000000000000e+00 0.0000000000000000e+00 0.0000000000000000e+00  -2.5072952699519650e-03 6.0922527076375252e-03 -4.7603243091025333e-03  -4.1836678535619766e-03 1.3307492922600339e-02 -1.0027998717026310e-02  -5.2854145698654218e-03 2.1087000085376981e-02 -1.5590811323874545e-02  -6.0003529326445046e-03 2.9172705791278179e-02 -2.1261542734394363e-02  -6.4580325169849738e-03 3.7437515288217017e-02 -2.6925440659972912e-02  -6.7461196766200058e-03 4.5817413810957282e-02 -3.2517362410633056e-02  -6.9231193386753891e-03 5.4281142805180663e-02 -3.8001878472895545e-02  -7.0276385643336754e-03 6.2814693977526329e-02 -4.3360496911217863e-02  -7.0849374222763020e-03 7.1412857902309640e-02 -4.8584014220450229e-02  -7.1114502018278306e-03 8.0074573023903944e-02 -5.3668105514882172e-02  -7.1178433903731925e-03 8.8800421875123423e-02 -5.8610867264828233e-02  -7.1110501645676814e-03 9.7591346152595654e-02 -6.3411501173813264e-02  -7.0956054729518717e-03 1.0644804114168410e-01 -6.8069646974722564e-02  -7.0745113577928937e-03 1.1537071530673690e-01 -7.2585074031106492e-02  -7.0497903809365031e-03 1.2435903455622485e-01 -7.6957565369066422e-02  -7.0228328865395177e-03 1.3341214996480669e-01 -8.1186901630000877e-02  -6.9946070557401875e-03 1.4252875416218166e-01 -8.5272895521926739e-02  -6.9657751872813983e-03 1.5170713825720428e-01 -8.9215451858192560e-02  -6.9367420098197588e-03 1.6094523606799116e-01 -9.3014641754734770e-02  -6.9076485396956204e-03 1.7024065047382506e-01 -9.6670786547345969e-02  -6.8783161909285184e-03 1.7959066086618314e-01 -1.0018455012169984e-01  -6.8481392304813463e-03 1.8899221274458269e-01 -1.0355703906153017e-01  -6.8159183864850252e-03 1.9844189155107939e-01 -1.0678990900311046e-01  -6.7796239191289832e-03 2.0793588351225753e-01 -1.0988547303757398e-01  -6.7360724650894653e-03 2.1746992696265224e-01 -1.1284680378920720e-01  -6.6804983871344018e-03 2.2703925863187005e-01 -1.1567781452165346e-01  -6.6059973065661116e-03 2.3663856090340044e-01 -1.1838329566760744e-01  -6.5028172503490576e-03 2.4626191829533903e-01 -1.2096887071722831e-01  -6.3574718736466593e-03 2.5590279457976384e-01 -1.2344081841426276e-01  -6.1516512005594746e-03 2.6555404626881834e-01 -1.2580568549331919e-01  -5.8609092261740258e-03 2.7520799386274319e-01 -1.2806958440201854e-01  -5.4531159656113016e-03 2.8485657941819531e-01 -1.3023703218291036e-01  -4.8866763643380029e-03 2.9449164760228386e-01 -1.3230913862002086e-01  -4.1085436466401616e-03 3.0410539700024808e-01 -1.3428089287358175e-01  -3.0520966061563268e-03 3.1369105788272783e-01 -1.3613722778452322e-01  -1.6350199755762052e-03 3.2324385958897406e-01 -1.3784746066506173e-01  2.4255766507776637e-04 3.3276235102630980e-01 -1.3935762154085851e-01  2.6992249439315450e-03 3.4225012467758620e-01 -1.4058009061383087e-01  5.8720006540945143e-03 3.5171795677487094e-01 -1.4137988769331025e-01  9.9133788969062425e-03 3.6118629512389588e-01 -1.4155690744224264e-01  1.4983779893496675e-02 3.7068786720347552e-01 -1.4082340730329534e-01  2.1236474061417820e-02 3.8026987571073240e-01 -1.3877617426143868e-01  2.8790698741968268e-02 3.8999464430413538e-01 -1.3486306714028046e-01  3.7687015600081218e-02 3.9993630721237128e-01 -1.2834404391945570e-01  4.7817151051396292e-02 4.1016824877098468e-01 -1.1824706745581053e-01  5.8819392633660345e-02 4.2072873071629174e-01 -1.0331802833982755e-01  6.9933086900149724e-02 4.3153111600831306e-01 -8.1954284297708471e-02  7.9823029121650096e-02 4.4210974334691072e-01 -5.2059673383786753e-02  8.6450863589726645e-02 4.5073529617890490e-01 -1.0482627005043110e-02  8.7252147795647675e-02 4.5000000000000001e-01 4.9999999999999975e-02  0.0000000000000000e+00 0.0000000000000000e+00 0.0000000000000000e+00  -2.7070247092962317e-03 6.8118924870959078e-03 -3.8143059978924727e-03  -4.7327391372990763e-03 1.3970406956219310e-02 -7.5939981695595689e-03  -6.1787697408791087e-03 2.1503268744768111e-02 -1.1556252024922617e-02  -7.1772529486770643e-03 2.9306731003743609e-02 -1.5606834017360880e-02  -7.8487175327583824e-03 3.7295006258656650e-02 -1.9655940686622669e-02  -8.2892181021481104e-03 4.5411797402341851e-02 -2.3645680756578566e-02  -8.5703550402267646e-03 5.3622602223496942e-02 -2.7541771381266792e-02  -8.7434236114111372e-03 6.1907020243631351e-02 -3.1324614604807011e-02  -8.8442058369627170e-03 7.0253287157580765e-02 -3.4983272658381796e-02  -8.8971827023503498e-03 7.8654704064013578e-02 -3.8511757993763218e-02  -8.9188572203031738e-03 8.7107400030876081e-02 -4.1906834489818995e-02  -8.9202270781974843e-03 9.5608976974731988e-02 -4.5166752282841394e-02  -8.9085570917649386e-03 1.0415771713232995e-01 -4.8290543570289057e-02  -8.8886162415444600e-03 1.1275213772996619e-01 -5.1277648551102707e-02  -8.8635227801602788e-03 1.2139075250881687e-01 -5.4127732476952836e-02  -8.8353102298199433e-03 1.3007195116467973e-01 -5.6840612356737950e-02  -8.8052977598453517e-03 1.3879394177576812e-01 -5.9416247107512303e-02  -8.7743240254687712e-03 1.4755472318722448e-01 -6.1854766060687898e-02  -8.7428845497284635e-03 1.5635206808523230e-01 -6.4156523067596463e-02  -8.7111984346583786e-03 1.6518350598203810e-01 -6.6322170378218775e-02  -8.6792195623056415e-03 1.7404630051601638e-01 -6.8352750029232717e-02  -8.6465994941367259e-03 1.8293741867676644e-01 -7.0249801823147245e-02  -8.6126031710135123e-03 1.9185349168036911e-01 -7.2015486668589451e-02  -8.5759736211341898e-03 2.0079076883732880e-01 -7.3652722236046658e-02  -8.5347377442222937e-03 2.0974506728030717e-01 -7.5165324419092724e-02  -8.4859415500679169e-03 2.1871172213758375e-01 -7.6558142594192372e-02  -8.4252998016075154e-03 2.2768554386295364e-01 -7.7837168545601174e-02  -8.3467417574007701e-03 2.3666079211912136e-01 -7.9009587366311654e-02  -8.2418316223584528e-03 2.4563117895625602e-01 -8.0083722665645979e-02  -8.0990394967097590e-03 2.5458991804069853e-01 -8.1068806828406184e-02  -7.9028363261203043e-03 2.6352984123820272e-01 -8.1974478540305526e-02  -7.6325851951246889e-03 2.7244360857208166e-01 -8.2809872868734841e-02  -7.2612025290376353e-03 2.8132404171379022e-01 -8.3582122372420256e-02  -6.7535688986969837e-03 2.9016461340403155e-01 -8.4294029553873800e-02  -6.0646849290425268e-03 2.9896012337740174e-01 -8.4940600133292160e-02  -5.1376017711908676e-03 3.0770758201955217e-01 -8.5504041966816019e-02  -3.9012218053902444e-03 3.1640730059723232e-01 -8.5946735035247510e-02  -2.2681855887069302e-03 3.2506414221382901e-01 -8.6201563133763065e-02  -1.3326707824959266e-04 3.3368880394653122e-01 -8.6158867397920461e-02  2.6269675000638410e-03 3.4229884534196253e-01 -8.5649135766870665e-02  6.1519715750889383e-03 3.5091888462690340e-01 -8.4420381052446480e-02  1.0590496113455512e-02 3.5957881048288654e-01 -8.2108980231678758e-02  1.6086307346569222e-02 3.6830770324020490e-01 -7.8202529883319452e-02  2.2751932475464798e-02 3.7711877196031590e-01 -7.1992946625765428e-02  3.0624012583925796e-02 3.8597550297916644e-01 -6.2517393012068351e-02  3.9590278158531340e-02 3.9471762525627513e-01 -4.8483021559228512e-02  4.9270074305097604e-02 4.0289645237846333e-01 -2.8166686061719994e-02  5.8809099131954860e-02 4.0938344886155875e-01 7.4095361221243898e-04  6.6480907623610086e-02 4.1129179888839007e-01 4.1506685613375345e-02  6.8641445655475003e-02 4.0000000000000002e-01 9.9999999999999992e-02  0.0000000000000000e+00 0.0000000000000000e+00 0.0000000000000000e+00  -2.0928144287931535e-03 7.4431366275174776e-03 -2.6081934595170620e-03  -3.6923354429176567e-03 1.4736810028525093e-02 -5.0056667733239099e-03  -4.8952753149364781e-03 2.2137963483923752e-02 -7.4632725313314831e-03  -5.7677910116381709e-03 2.9706073927317309e-02 -9.9564677958799384e-03  -6.3792002635743167e-03 3.7429404946615431e-02 -1.2430951084014236e-02  -6.7939164883829752e-03 4.5279385475142979e-02 -1.4844187611335600e-02  -7.0656816798291156e-03 5.3228466312417101e-02 -1.7167954406685882e-02  -7.2363547919014311e-03 6.1254608443525656e-02 -1.9384657848951305e-02  -7.3370879096948958e-03 6.9341417902107280e-02 -2.1483692652581595e-02  -7.3903275265694603e-03 7.7477078666558133e-02 -2.3458812475308503e-02  -7.4118572762743124e-03 8.5653143838052406e-02 -2.5306408056819388e-02  -7.4125630708077109e-03 9.3863509213964025e-02 -2.7024433670534947e-02  -7.3998354426793624e-03 1.0210363242148850e-01 -2.8611761252338198e-02  -7.3786281107618874e-03 1.1036997270156709e-01 -3.0067806037492123e-02  -7.3522296663497385e-03 1.1865960332433675e-01 -3.1392321212981446e-02  -7.3228117270525209e-03 1.2696994942055678e-01 -3.2585297333863943e-02  -7.2918101246927025e-03 1.3529861240502003e-01 -3.3646927742859462e-02  -7.2601846528995758e-03 1.4364325170065242e-01 -3.4577617584508488e-02  -7.2285916764875694e-03 1.5200150283798344e-01 -3.5378024196029881e-02  -7.1974940713306051e-03 1.6037091763620134e-01 -3.6049122801354680e-02  -7.1672248817576485e-03 1.6874891719099647e-01 -3.6592294907305305e-02  -7.1380145755898204e-03 1.7713275214968105e-01 -3.7009438414002553e-02  -7.1099864651437104e-03 1.8551946762509897e-01 -3.7303098605790563e-02  -7.0831203182018685e-03 1.9390587242086288e-01 -3.7476617977985426e-02  -7.0571799914333679e-03 2.0228851427587313e-01 -3.7534300130130642e-02  -7.0315966928244265e-03 2.1066366477291354e-01 -3.7481578361028133e-02  -7.0052948536460250e-03 2.1902731949599608e-01 -3.7325172580615552e-02  -6.9764422094220563e-03 2.2737522096140841e-01 -3.7073207956569196e-02  -6.9420992063097655e-03 2.3570291364433224e-01 -3.6735254381158350e-02  -6.8977349457276151e-03 2.4400584173090936e-01 -3.6322226203401677e-02  -6.8365673328471786e-03 2.5227950040898872e-01 -3.5846055327869504e-02  -6.7486739257148305e-03 2.6051964952616574e-01 -3.5319016108797660e-02  -6.6198077442388877e-03 2.6872259269609100e-01 -3.4752535588411237e-02  -6.4298405713540674e-03 2.7688551310656578e-01 -3.4155265348280756e-02  -6.1507484666369922e-03 2.8500683612043881e-01 -3.3530118901076912e-02  -5.7440567593735215e-03 2.9308655370856551e-01 -3.2869887704754019e-02  -5.1576859427846225e-03 3.0112639015510184e-01 -3.2150934757072425e-02  -4.3222042121022547e-03 3.0912960156038854e-01 -3.1324320400633113e-02  -3.1466263399833943e-03 3.1710006366328236e-01 -3.0303530429688592e-02  -1.5141481249300881e-03 3.2504007345687846e-01 -2.8947738340749506e-02  7.2135655707354673e-04 3.3294588602143416e-01 -2.7039226559018154e-02  3.7365013133487217e-03 3.4079925350838386e-01 -2.4253207888068014e-02  7.7343571498020031e-03 3.4855177232550116e-01 -2.0117852950995704e-02  1.2930079979942801e-02 3.5609598166781503e-01 -1.3961956271009610e-02  1.9516692741785812e-02 3.6321156971611684e-01 -4.8476600276095780e-03  2.7592556068249577e-02 3.6946415486314765e-01 8.5134803889624078e-03  3.7012164887151137e-02 3.7401182351787143e-01 2.7860912099548642e-02  4.7075013486790544e-02 3.7521939419056277e-01 5.5505225909068971e-02  5.5849340598871290e-02 3.6978354318324819e-01 9.4549079403779768e-02  5.8541333327264106e-02 3.4999999999999998e-01 1.4999999999999997e-01  0.0000000000000000e+00 0.0000000000000000e+00 0.0000000000000000e+00  -1.1179762615750545e-03 7.8292002688329816e-03 -1.2398687428339561e-03  -1.9655092547448461e-03 1.5240815031445440e-02 -2.2637553247278632e-03  -2.6164506550179390e-03 2.2582197453918974e-02 -3.2679602853492823e-03  -3.1012245150682720e-03 2.9992138705468296e-02 -4.2497746850339094e-03  -3.4478185495997894e-03 3.7511463202164155e-02 -5.1819197421575803e-03  -3.6848283982685386e-03 4.5138504347766527e-02 -6.0393311760283596e-03  -3.8386827222840112e-03 5.2856381670323936e-02 -6.8033224736976580e-03  -3.9316932608383492e-03 6.0645216623233800e-02 -7.4610891688369364e-03  -3.9815162145287082e-03 6.8486948087527921e-02 -8.0042852882191446e-03  -4.0014904463004323e-03 7.6366762399016741e-02 -8.4276742349580075e-03  -4.0013502561920397e-03 8.4273095976474574e-02 -8.7280915785123911e-03  -3.9880110918100488e-03 9.2197123989045573e-02 -8.9037174718287967e-03  -3.9662829669761404e-03 1.0013214035276519e-01 -8.9535936522165457e-03  -3.9394592911600841e-03 1.0807299254811940e-01 -8.8773169036577265e-03  -3.9097764088093703e-03 1.1601562296149591e-01 -8.6748546026841778e-03  -3.8787598718889229e-03 1.2395671978375765e-01 -8.3464435464281946e-03  -3.8474798790509878e-03 1.3189346204827410e-01 -7.8925461890935588e-03  -3.8167378467665429e-03 1.3982333888566606e-01 -7.3138479769206738e-03  -3.7872027702113686e-03 1.4774402450799307e-01 -6.6112861301310527e-03  -3.7595118940350618e-03 1.5565329396988792e-01 -5.7861046465549505e-03  -3.7343461142110715e-03 1.6354896864496729e-01 -4.8399330614884942e-03  -3.7124867287744545e-03 1.7142888389770333e-01 -3.7748879669346706e-03  -3.6948565872395363e-03 1.7929087440859137e-01 -2.5936966527525035e-03  -3.6825451331623411e-03 1.8713277501363682e-01 -1.2998414879452406e-03  -3.6768129800852159e-03 1.9495243679272020e-01 1.0227834497470679e-04  -3.6790671372688897e-03 2.0274775950087859e-01 1.6071747325211135e-03  -3.6907923873411674e-03 2.1051674221080571e-01 3.2081007429852521e-03  -3.7134171463877510e-03 2.1825755401216573e-01 4.8969039513974072e-03  -3.7480829080328475e-03 2.2596862537646853e-01 6.6639359227962103e-03  -3.7952745904222436e-03 2.3364875763740847e-01 8.4980674635434100e-03  -3.8542543571438996e-03 2.4129724184674212e-01 1.0386881987073882e-02  -3.9222235957745190e-03 2.4891396740044938e-01 1.2317149840212545e-02  -3.9931170375342396e-03 2.5649948295879321e-01 1.4275726779975517e-02  -4.0559107470523334e-03 2.6405494413620184e-01 1.6251072584907236e-02  -4.0923047803420971e-03 2.7158184003923130e-01 1.8235654419298093e-02  -4.0736272939718718e-03 2.7908132857005907e-01 2.0229588707435672e-02  -3.9568098829574688e-03 2.8655292128094129e-01 2.2245991748839428e-02  -3.6793215711723262e-03 2.9399213195143498e-01 2.4318663615891987e-02  -3.1530518606288308e-03 3.0138652130411397e-01 2.6512938455732233e-02  -2.2573558639362276e-03 3.0870929970961758e-01 2.8940822161338937e-02  -8.3191650396785479e-04 3.1590922230713891e-01 3.1781939659314355e-02  1.3290671465227767e-03 3.2289478981326880e-01 3.5312362453031848e-02  4.4781969431734953e-03 3.2950949025445614e-01 3.9944072327665454e-02  8.9052349411165750e-03 3.3549251107496697e-01 4.6278454489388436e-02  1.4903360837874588e-02 3.4041525691573360e-01 5.5177144123096773e-02  2.2684591232021371e-02 3.4357706316342634e-01 6.7851249265805977e-02  3.2190643797339658e-02 3.4383217535263677e-01 8.5964007510928683e-02  4.2693753837845495e-02 3.3929656676796360e-01 1.1174095444765424e-01  5.1976774625606063e-02 3.2677531627427620e-01 1.4815955731772026e-01  5.4618907234156376e-02 2.9999999999999999e-01 1.9999999999999998e-01  0.0000000000000000e+00 0.0000000000000000e+00 0.0000000000000000e+00  1.9936872010920940e-05 7.9534788856394385e-03 2.1417434270514017e-04  5.7308269385643493e-05 1.5389116759196455e-02 5.6825815589581295e-04  8.4819752252927649e-05 2.2680129959111332e-02 9.9962311749583169e-04  1.0539317121500940e-04 2.9988540142449890e-02 1.5075900852019686e-03  1.2451819034040224e-04 3.7371906034608389e-02 2.1003861330427826e-03  1.4570526643745572e-04 4.4838755751137063e-02 2.7872999107381186e-03  1.7034742998641990e-04 5.2377131174231276e-02 3.5765832178587917e-03  1.9847203019080523e-04 5.9968698675701759e-02 4.4747719383484586e-03  2.2944016495584797e-04 6.7595153283012757e-02 5.4866492134865675e-03  2.6239889149533638e-04 7.5240683287282686e-02 6.6154903257706257e-03  2.9651878000468227e-04 8.2892550683003316e-02 7.8633850316143072e-03  3.3109126481616698e-04 9.0540860892611041e-02 9.2315387719148125e-03  3.6554694237683370e-04 9.8178054225500327e-02 1.0720516341062372e-02  3.9943428991845816e-04 1.0579836501814041e-01 1.2330422153276087e-02  4.3238118100181555e-04 1.1339734856397504e-01 1.4061023588636604e-02  4.6405053172503675e-04 1.2097150539032139e-01 1.5911827204416470e-02  4.9409499416247168e-04 1.2851800104043576e-01 1.7882116983443094e-02  5.2211220286030823e-04 1.3603446777487485e-01 1.9970961812487868e-02  5.4760050282303698e-04 1.4351887220517098e-01 2.2177197205898416e-02  5.6991462663253702e-04 1.5096943448948355e-01 2.4499384400349780e-02  5.8822106433195707e-04 1.5838458769633504e-01 2.6935748532983337e-02  6.0145373002618149e-04 1.6576296901602758e-01 2.9484096756534448e-02  6.0827197533577944e-04 1.7310343710712564e-01 3.2141716908794922e-0